 LAMMPS data file

 2 atoms

 1 atom types

 -50 50 xlo xhi
 -50 50 ylo yhi
 -50 50 zlo zhi


 Masses

 1 4.02

 Atoms

 1 1 0.0 0.0 0.0 0 0 0 
 2 1 0.0 0.0 0.5 0 0 0 
